LAMMPS (2 Apr 2025)
OMP_NUM_THREADS environment is not set. Defaulting to 1 thread. (src/comm.cpp:99)
  using 1 OpenMP thread(s) per MPI task
Loaded 1 plugins from C:\Users\apand\AppData\Local\LAMMPS 64-bit 2Apr2025\plugins
# FCC Crack Simulation in LAMMPS

# Initialization
units           metal
dimension       3
boundary        p p p
atom_style      atomic

variable a equal 4.05    # lattice constant for Al
# Lattice and region
lattice         fcc 4.05 orient x 1 0 0 orient y 0 1 0 orient z 0 0 1
Lattice spacing in x,y,z = 4.05 4.05 4.05
region          box block 0 20 0 20 0 20
create_box      1 box
Created orthogonal box = (0 0 0) to (81 81 81)
  1 by 1 by 1 MPI processor grid
create_atoms    1 box
Created 32000 atoms
  using lattice units in orthogonal box = (0 0 0) to (81 81 81)
  create_atoms CPU = 0.003 seconds

# Mass and interatomic potential
mass            1 26.98  # Aluminum
pair_style      eam/alloy
pair_coeff * * Al99.eam.alloy Al
# Define groups for crack and loading
region          lower block INF INF INF 2.0 INF INF
region          upper block INF INF 18.0 INF INF INF
group           lower region lower
4000 atoms in group lower
group           upper region upper
3200 atoms in group upper
group           boundary union lower upper
7200 atoms in group boundary
group           mobile subtract all boundary
24800 atoms in group mobile

region          leftupper block INF 5 10 20 INF INF
region          leftlower block INF 5 0 10 INF INF
group           leftupper region leftupper
4400 atoms in group leftupper
group           leftlower region leftlower
4620 atoms in group leftlower



# Initial velocities
compute         new mobile temp
velocity        mobile create 0.01 887723 temp new
velocity        upper set 0.0 30 0.0
velocity        mobile ramp vy 0.0 30 y 2.0 18.0 sum yes

# Fixes
fix             1 all nve
fix             2 boundary setforce NULL 0.0 0.0

# Output and run
thermo          200
thermo_modify   temp new
WARNING: Temperature for thermo pressure is not for group all (src/thermo.cpp:559)
dump 1 all custom 100 dump.ovito.lammpstrj id type x y z
dump_modify     1 sort id
timestep        0.003
dump dumpOvito all custom 100 dump.ovito id type x y z
dump_modify dumpOvito sort id
dump dumpVMD all xyz 100 dump.xyz
dump_modify dumpVMD sort id
run             50000
Neighbor list info ...
  update: every = 1 steps, delay = 0 steps, check = yes
  max neighbors/atom: 2000, page size: 100000
  master list distance cutoff = 8.28721
  ghost atom cutoff = 8.28721
  binsize = 4.143605, bins = 20 20 20
  1 neighbor lists, perpetual/occasional/extra = 1 0 0
  (1) pair eam/alloy, perpetual
      attributes: half, newton on
      pair build: half/bin/atomonly/newton
      stencil: half/bin/3d
      bin: standard
Per MPI rank memory allocation (min/avg/max) = 20.99 | 20.99 | 20.99 Mbytes
   Step          Temp          E_pair         E_mol          TotEng         Press     
         0   52399.583     -107520         0              60448.033      337593.58    
WARNING: A per-atom density exceeded rhomax of EAM potential table - a linear extrapolation to the energy was made (src/MANYBODY/pair_eam.cpp:334)
       200   138572.17      145087.46      0              589283.63      1937229.6    
       400   373230.94      77457.558      0              1273857.7      2892495.4    
       600   682338.26      85770.893      0              2273021.4      4849334      
